 Gaussian 16, Revision A.03,
 Gaussian 16:  EM64L-G16RevA.03 25-Dec-2016

 ------------------------------------------------
 #p rhf nosymm output=matrix int=noraf scf=conven
 ------------------------------------------------

 --------
 h2-sto3g
 --------
 Symbolic Z-matrix:
 Charge =  0 Multiplicity = 1

                          Input orientation:
 ---------------------------------------------------------------------
 Center     Atomic      Atomic             Coordinates (Angstroms)
 Number     Number       Type             X           Y           Z
 ---------------------------------------------------------------------
      1          1           0        0.000000    0.000000    0.000000
      2          1           0        0.000000    0.000000    0.600000
      3          1           0        0.000000    0.000000    1.200000
      4          1           0        0.000000    0.000000    1.800000
      5          1           0        0.000000    0.000000    2.400000
      6          1           0        0.000000    0.000000    3.000000
      7          1           0        0.000000    0.000000    3.600000
      8          1           0        0.000000    0.000000    4.200000
      9          1           0        0.000000    0.000000    4.800000
     10          1           0        0.000000    0.000000    5.400000
     11          1           0        0.000000    0.000000    6.000000
     12          1           0        0.000000    0.000000    6.600000
     13          1           0        0.000000    0.000000    7.200000
     14          1           0        0.000000    0.000000    7.800000
     15          1           0        0.000000    0.000000    8.400000
     16          1           0        0.000000    0.000000    9.000000
 ---------------------------------------------------------------------

 SCF Done:  E(RHF) =  -6.83493385767     A.U. after    9 cycles

 Alpha  occ. eigenvalues --   -1.06684  -1.01814  -0.94305  -0.83840  -0.70067
 Alpha  occ. eigenvalues --   -0.52629  -0.31151  -0.05541
 Alpha virt. eigenvalues --    0.48300   0.83133   1.23258   1.69235   2.21708
 Alpha virt. eigenvalues --    2.79404   3.36545   3.80895

 Mulliken charges:
               1
     1  H   -0.115340
     2  H    0.027537
     3  H   -0.024118
     4  H    0.056903
     5  H   -0.006346
     6  H    0.033996
     7  H    0.007581
     8  H    0.019787
     9  H    0.019787
    10  H    0.007581
    11  H    0.033996
    12  H   -0.006346
    13  H    0.056903
    14  H   -0.024118
    15  H    0.027537
    16  H   -0.115340
 Sum of Mulliken charges =   0.00000

 Dipole moment (field-independent basis, Debye):
    X=              0.0000    Y=              0.0000    Z=              0.0000  Tot=              0.0000
 Quadrupole moment (field-independent basis, Debye-Ang):
   XX=            -12.9261   YY=            -12.9261   ZZ=            -36.0125
   XY=              0.0000   XZ=              0.0000   YZ=              0.0000

 Normal termination of Gaussian 16 at Sun Dec  5 14:13:58 2021.
