 Gaussian 16, Revision A.03,
 Gaussian 16:  EM64L-G16RevA.03 25-Dec-2016

 ------------------------------------------------
 #p rhf nosymm output=matrix int=noraf scf=conven
 ------------------------------------------------

 --------
 h2-sto3g
 --------
 Symbolic Z-matrix:
 Charge =  0 Multiplicity = 1

                          Input orientation:
 ---------------------------------------------------------------------
 Center     Atomic      Atomic             Coordinates (Angstroms)
 Number     Number       Type             X           Y           Z
 ---------------------------------------------------------------------
      1          1           0        0.000000    0.000000    0.000000
      2          1           0        0.000000    0.000000    0.600000
      3          1           0        0.000000    0.000000    1.200000
      4          1           0        0.000000    0.000000    1.800000
      5          1           0        0.000000    0.000000    2.400000
      6          1           0        0.000000    0.000000    3.000000
      7          1           0        0.000000    0.000000    3.600000
      8          1           0        0.000000    0.000000    4.200000
      9          1           0        0.000000    0.000000    4.800000
     10          1           0        0.000000    0.000000    5.400000
     11          1           0        0.000000    0.000000    6.000000
     12          1           0        0.000000    0.000000    6.600000
     13          1           0        0.000000    0.000000    7.200000
     14          1           0        0.000000    0.000000    7.800000
     15          1           0        0.000000    0.000000    8.400000
     16          1           0        0.000000    0.000000    9.000000
     17          1           0        0.000000    0.000000    9.600000
     18          1           0        0.000000    0.000000   10.200000
     19          1           0        0.000000    0.000000   10.800000
     20          1           0        0.000000    0.000000   11.400000
     21          1           0        0.000000    0.000000   12.000000
     22          1           0        0.000000    0.000000   12.600000
     23          1           0        0.000000    0.000000   13.200000
     24          1           0        0.000000    0.000000   13.800000
     25          1           0        0.000000    0.000000   14.400000
     26          1           0        0.000000    0.000000   15.000000
     27          1           0        0.000000    0.000000   15.600000
     28          1           0        0.000000    0.000000   16.200000
     29          1           0        0.000000    0.000000   16.800000
     30          1           0        0.000000    0.000000   17.400000
     31          1           0        0.000000    0.000000   18.000000
     32          1           0        0.000000    0.000000   18.600000
 ---------------------------------------------------------------------

 SCF Done:  E(RHF) =  -13.3697242905     A.U. after   10 cycles

 Alpha  occ. eigenvalues --   -1.06082  -1.04753  -1.02768  -1.00091  -0.96683
 Alpha  occ. eigenvalues --   -0.92498  -0.87477  -0.81557  -0.74664  -0.66721
 Alpha  occ. eigenvalues --   -0.57647  -0.47356  -0.35752  -0.22732  -0.08229
 Alpha  occ. eigenvalues --    0.07354
 Alpha virt. eigenvalues --    0.42826   0.60796   0.80326   1.00906   1.22636
 Alpha virt. eigenvalues --    1.45682   1.70188   1.96231   2.23769   2.52565
 Alpha virt. eigenvalues --    2.82100   3.11482   3.39389   3.64099   3.83655

 Mulliken charges:
               1
     1  H   -0.140655
     2  H    0.033028
     3  H   -0.041643
     4  H    0.062658
     5  H   -0.026829
     6  H    0.042324
     7  H   -0.016438
     8  H    0.031390
     9  H   -0.009523
    10  H    0.023969
    11  H   -0.004140
    12  H    0.018230
    13  H    0.000488
    14  H    0.013380
    15  H    0.004772
    16  H    0.008989
    17  H    0.008989
    18  H    0.004772
    19  H    0.013380
    20  H    0.000488
    21  H    0.018230
    22  H   -0.004140
    23  H    0.023969
    24  H   -0.009523
    25  H    0.031390
    26  H   -0.016438
    27  H    0.042324
    28  H   -0.026829
    29  H    0.062658
    30  H   -0.041643
    31  H    0.033028
    32  H   -0.140655
 Sum of Mulliken charges =  -0.00000

 Dipole moment (field-independent basis, Debye):
    X=              0.0000    Y=              0.0000    Z=             -0.0000  Tot=              0.0000
 Quadrupole moment (field-independent basis, Debye-Ang):
   XX=            -25.5401   YY=            -25.5401   ZZ=           -116.1211
   XY=              0.0000   XZ=              0.0000   YZ=              0.0000

 Normal termination of Gaussian 16 at Sun Dec  5 15:25:10 2021.
