 Gaussian 16, Revision A.03,
 Gaussian 16:  EM64L-G16RevA.03 25-Dec-2016

 ------------------------------------------------
 #p rhf nosymm output=matrix int=noraf scf=conven
 ------------------------------------------------

 --------
 h2-sto3g
 --------
 Symbolic Z-matrix:
 Charge =  0 Multiplicity = 1

                          Input orientation:
 ---------------------------------------------------------------------
 Center     Atomic      Atomic             Coordinates (Angstroms)
 Number     Number       Type             X           Y           Z
 ---------------------------------------------------------------------
      1          1           0        0.000000    0.000000    0.000000
      2          1           0        0.000000    0.000000    0.600000
      3          1           0        0.000000    0.000000    1.200000
      4          1           0        0.000000    0.000000    1.800000
      5          1           0        0.000000    0.000000    2.400000
      6          1           0        0.000000    0.000000    3.000000
      7          1           0        0.000000    0.000000    3.600000
      8          1           0        0.000000    0.000000    4.200000
      9          1           0        0.000000    0.000000    4.800000
     10          1           0        0.000000    0.000000    5.400000
     11          1           0        0.000000    0.000000    6.000000
     12          1           0        0.000000    0.000000    6.600000
     13          1           0        0.000000    0.000000    7.200000
     14          1           0        0.000000    0.000000    7.800000
     15          1           0        0.000000    0.000000    8.400000
     16          1           0        0.000000    0.000000    9.000000
     17          1           0        0.000000    0.000000    9.600000
     18          1           0        0.000000    0.000000   10.200000
     19          1           0        0.000000    0.000000   10.800000
     20          1           0        0.000000    0.000000   11.400000
     21          1           0        0.000000    0.000000   12.000000
     22          1           0        0.000000    0.000000   12.600000
     23          1           0        0.000000    0.000000   13.200000
     24          1           0        0.000000    0.000000   13.800000
     25          1           0        0.000000    0.000000   14.400000
     26          1           0        0.000000    0.000000   15.000000
     27          1           0        0.000000    0.000000   15.600000
     28          1           0        0.000000    0.000000   16.200000
     29          1           0        0.000000    0.000000   16.800000
     30          1           0        0.000000    0.000000   17.400000
     31          1           0        0.000000    0.000000   18.000000
     32          1           0        0.000000    0.000000   18.600000
     33          1           0        0.000000    0.000000   19.200000
     34          1           0        0.000000    0.000000   19.800000
     35          1           0        0.000000    0.000000   20.400000
     36          1           0        0.000000    0.000000   21.000000
     37          1           0        0.000000    0.000000   21.600000
     38          1           0        0.000000    0.000000   22.200000
     39          1           0        0.000000    0.000000   22.800000
     40          1           0        0.000000    0.000000   23.400000
     41          1           0        0.000000    0.000000   24.000000
     42          1           0        0.000000    0.000000   24.600000
     43          1           0        0.000000    0.000000   25.200000
     44          1           0        0.000000    0.000000   25.800000
     45          1           0        0.000000    0.000000   26.400000
     46          1           0        0.000000    0.000000   27.000000
     47          1           0        0.000000    0.000000   27.600000
     48          1           0        0.000000    0.000000   28.200000
     49          1           0        0.000000    0.000000   28.800000
     50          1           0        0.000000    0.000000   29.400000
     51          1           0        0.000000    0.000000   30.000000
     52          1           0        0.000000    0.000000   30.600000
     53          1           0        0.000000    0.000000   31.200000
     54          1           0        0.000000    0.000000   31.800000
     55          1           0        0.000000    0.000000   32.400000
     56          1           0        0.000000    0.000000   33.000000
     57          1           0        0.000000    0.000000   33.600000
     58          1           0        0.000000    0.000000   34.200000
     59          1           0        0.000000    0.000000   34.800000
     60          1           0        0.000000    0.000000   35.400000
     61          1           0        0.000000    0.000000   36.000000
     62          1           0        0.000000    0.000000   36.600000
     63          1           0        0.000000    0.000000   37.200000
     64          1           0        0.000000    0.000000   37.800000
 ---------------------------------------------------------------------

 SCF Done:  E(RHF) =  -26.4374064338     A.U. after   13 cycles

 Alpha  occ. eigenvalues --   -1.05002  -1.04662  -1.04147  -1.03460  -1.02597
 Alpha  occ. eigenvalues --   -1.01556  -1.00333  -0.98924  -0.97322  -0.95521
 Alpha  occ. eigenvalues --   -0.93515  -0.91296  -0.88854  -0.86181  -0.83267
 Alpha  occ. eigenvalues --   -0.80099  -0.76667  -0.72958  -0.68959  -0.64658
 Alpha  occ. eigenvalues --   -0.60039  -0.55090  -0.49794  -0.44137  -0.38099
 Alpha  occ. eigenvalues --   -0.31664  -0.24809  -0.17513  -0.09758  -0.01547
 Alpha  occ. eigenvalues --    0.07030   0.15427
 Alpha virt. eigenvalues --    0.39662   0.48519   0.58365   0.68524   0.78883
 Alpha virt. eigenvalues --    0.89441   1.00217   1.11241   1.22540   1.34141
 Alpha virt. eigenvalues --    1.46068   1.58339   1.70970   1.83970   1.97339

 Mulliken charges:
               1
     1  H   -0.154202
     2  H    0.036117
     3  H   -0.050881
     4  H    0.065845
     5  H   -0.037212
     6  H    0.046587
     7  H   -0.027836
     8  H    0.036713
     9  H   -0.022044
    10  H    0.030394
    11  H   -0.017913
    12  H    0.025836
    13  H   -0.014697
    14  H    0.022283
    15  H   -0.012038
    16  H    0.019356
    17  H   -0.009739
    18  H    0.016844
    19  H   -0.007685
    20  H    0.014619
    21  H   -0.005799
    22  H    0.012597
    23  H   -0.004032
    24  H    0.010724
    25  H   -0.002348
    26  H    0.008958
    27  H   -0.000719
    28  H    0.007270
    29  H    0.000876
    30  H    0.005636
    31  H    0.002456
    32  H    0.004037
    33  H    0.004037
    34  H    0.002456
    35  H    0.005636
    36  H    0.000876
    37  H    0.007270
    38  H   -0.000719
    39  H    0.008958
    40  H   -0.002348
    41  H    0.010724
    42  H   -0.004032
    43  H    0.012597
    44  H   -0.005799
    45  H    0.014619
    46  H   -0.007685
    47  H    0.016844
    48  H   -0.009739
    49  H    0.019356
    50  H   -0.012038
    51  H    0.022283
    52  H   -0.014697
    53  H    0.025836
    54  H   -0.017913
    55  H    0.030394
    56  H   -0.022044
    57  H    0.036713
    58  H   -0.027836
    59  H    0.046587
    60  H   -0.037212
    61  H    0.065845
    62  H   -0.050881
    63  H    0.036117
    64  H   -0.154202
 Sum of Mulliken charges =  -0.00000

 Dipole moment (field-independent basis, Debye):
    X=              0.0000    Y=              0.0000    Z=              0.0000  Tot=              0.0000
 Quadrupole moment (field-independent basis, Debye-Ang):
   XX=            -50.7574   YY=            -50.7574   ZZ=           -388.6459
   XY=              0.0000   XZ=              0.0000   YZ=              0.0000

 Normal termination of Gaussian 16 at Sun Dec  5 15:25:39 2021.
