 Gaussian 16, Revision A.03,
 Gaussian 16:  EM64L-G16RevA.03 25-Dec-2016

 ------------------------------------------------
 #p rhf nosymm output=matrix int=noraf scf=conven
 ------------------------------------------------

 --------
 h2-sto3g
 --------
 Symbolic Z-matrix:
 Charge =  0 Multiplicity = 1

                          Input orientation:
 ---------------------------------------------------------------------
 Center     Atomic      Atomic             Coordinates (Angstroms)
 Number     Number       Type             X           Y           Z
 ---------------------------------------------------------------------
      1          1           0        0.000000    0.000000    0.000000
      2          1           0        0.000000    0.000000    0.600000
      3          1           0        0.000000    0.000000    1.200000
      4          1           0        0.000000    0.000000    1.800000
      5          1           0        0.000000    0.000000    2.400000
      6          1           0        0.000000    0.000000    3.000000
      7          1           0        0.000000    0.000000    3.600000
      8          1           0        0.000000    0.000000    4.200000
 ---------------------------------------------------------------------

 SCF Done:  E(RHF) =  -3.56674150808     A.U. after    7 cycles

 Alpha  occ. eigenvalues --   -1.04093  -0.87174  -0.60452  -0.23400
 Alpha virt. eigenvalues --    0.56761   1.25045   2.18896   3.32242

 Mulliken charges:
               1
     1  H   -0.071773
     2  H    0.018179
     3  H    0.009490
     4  H    0.044104
     5  H    0.044104
     6  H    0.009490
     7  H    0.018179
     8  H   -0.071773
 Sum of Mulliken charges =  -0.00000

 Dipole moment (field-independent basis, Debye):
    X=              0.0000    Y=              0.0000    Z=             -0.0000  Tot=              0.0000
 Quadrupole moment (field-independent basis, Debye-Ang):
   XX=             -6.6100   YY=             -6.6100   ZZ=            -11.8026
   XY=              0.0000   XZ=              0.0000   YZ=              0.0000

 Normal termination of Gaussian 16 at Sun Dec  5 15:24:48 2021.
