 Gaussian 16, Revision A.03,
 Gaussian 16:  EM64L-G16RevA.03 25-Dec-2016

 -------
 #P rohf
 -------

 ----
 test
 ----
 Symbolic Z-matrix:
 Charge =  0 Multiplicity = 2

                         Standard orientation:
 ---------------------------------------------------------------------
 Center     Atomic      Atomic             Coordinates (Angstroms)
 Number     Number       Type             X           Y           Z
 ---------------------------------------------------------------------
      1          7           0        0.000000    0.000000   -0.640000
      2          8           0        0.000000    0.000000    0.560000
 ---------------------------------------------------------------------

 SCF Done:  E(ROHF) =  -127.528579095     A.U. after   16 cycles

 Unable to determine electronic state:  an orbital has unidentified symmetry.
 Alpha  occ. eigenvalues --  -20.42463 -15.47044  -1.47248  -0.82871  -0.54713
 Alpha  occ. eigenvalues --   -0.53469  -0.52253  -0.01847
 Alpha virt. eigenvalues --    0.21436   0.81346

 Mulliken charges and spin densities:
               1          2
     1  N    0.072528   0.713273
     2  O   -0.072528   0.286727
 Sum of Mulliken charges =   0.00000   1.00000

 Dipole moment (field-independent basis, Debye):
    X=              0.0000    Y=              0.0000    Z=              0.0546  Tot=              0.0546
 Quadrupole moment (field-independent basis, Debye-Ang):
   XX=             -8.3892   YY=             -9.2456   ZZ=            -10.7860
   XY=              0.0000   XZ=              0.0000   YZ=              0.0000

 Normal termination of Gaussian 16 at Tue Nov 23 22:40:09 2021.
