 Gaussian 16, Revision A.03,
 Gaussian 16:  EM64L-G16RevA.03 25-Dec-2016

 --
 #p
 --
 1/38=1,172=1/1;
 2/12=2,17=6,18=5,40=1/2;
 3/11=9,25=1,30=1/1,2,3;
 4//1;
 5/5=2,38=5/2;

 ----
 test
 ----
 Symbolic Z-matrix:
 Charge =  0 Multiplicity = 1

                         Standard orientation:
 ---------------------------------------------------------------------
 Center     Atomic      Atomic             Coordinates (Angstroms)
 Number     Number       Type             X           Y           Z
 ---------------------------------------------------------------------
      1          1           0        0.000000    0.707107    0.000000
      2          1           0        0.707107   -0.000000    0.000000
      3          1           0       -0.707107    0.000000    0.000000
      4          1           0       -0.000000   -0.707107    0.000000
 ---------------------------------------------------------------------

 SCF Done:  E(RHF) =  -1.69488959779     A.U. after    4 cycles

 Unable to determine electronic state:  an orbital has unidentified symmetry.
 Alpha  occ. eigenvalues --   -0.69403  -0.12463
 Alpha virt. eigenvalues --    0.14759   0.83380

 Mulliken charges:
               1
     1  H    0.473333
     2  H   -0.473333
     3  H   -0.473333
     4  H    0.473333
 Sum of Mulliken charges =   0.00000

 Dipole moment (field-independent basis, Debye):
    X=             -0.0000    Y=              0.0000    Z=              0.0000  Tot=              0.0000
 Quadrupole moment (field-independent basis, Debye-Ang):
   XX=             -6.6960   YY=             -0.5199   ZZ=             -3.4823
   XY=              0.0000   XZ=             -0.0000   YZ=              0.0000

 Normal termination of Gaussian 16 at Tue Nov 23 22:22:29 2021.
