 Gaussian 16, Revision A.03,
 Gaussian 16:  EM64L-G16RevA.03 25-Dec-2016

 ------------------------------------------------
 #p rhf nosymm output=matrix int=noraf scf=conven
 ------------------------------------------------

 --------
 h2-sto3g
 --------
 Symbolic Z-matrix:
 Charge =  0 Multiplicity = 1

                          Input orientation:
 ---------------------------------------------------------------------
 Center     Atomic      Atomic             Coordinates (Angstroms)
 Number     Number       Type             X           Y           Z
 ---------------------------------------------------------------------
      1          1           0        0.000000    0.000000    0.000000
      2          1           0        0.000000    0.000000    1.200000
      3          1           0        0.000000    0.000000    2.400000
      4          1           0        0.000000    0.000000    3.600000
      5          1           0        0.000000    0.000000    4.800000
      6          1           0        0.000000    0.000000    6.000000
      7          1           0        0.000000    0.000000    7.200000
      8          1           0        0.000000    0.000000    8.400000
      9          1           0        0.000000    0.000000    9.600000
     10          1           0        0.000000    0.000000   10.800000
     11          1           0        0.000000    0.000000   12.000000
     12          1           0        0.000000    0.000000   13.200000
     13          1           0        0.000000    0.000000   14.400000
     14          1           0        0.000000    0.000000   15.600000
     15          1           0        0.000000    0.000000   16.800000
     16          1           0        0.000000    0.000000   18.000000
 ---------------------------------------------------------------------

 SCF Done:  E(RHF) =  -8.03203693193     A.U. after   11 cycles

 Alpha  occ. eigenvalues --   -0.59429  -0.57719  -0.54876  -0.50858  -0.45595
 Alpha  occ. eigenvalues --   -0.39012  -0.31093  -0.22348
 Alpha virt. eigenvalues --    0.05366   0.16421   0.28594   0.41080   0.53338
 Alpha virt. eigenvalues --    0.64604   0.73858   0.80002

 Mulliken charges:
               1
     1  H   -0.004719
     2  H    0.003248
     3  H   -0.000463
     4  H    0.001125
     5  H    0.000073
     6  H    0.000380
     7  H    0.000150
     8  H    0.000205
     9  H    0.000205
    10  H    0.000150
    11  H    0.000380
    12  H    0.000073
    13  H    0.001125
    14  H   -0.000463
    15  H    0.003248
    16  H   -0.004719
 Sum of Mulliken charges =  -0.00000

 Dipole moment (field-independent basis, Debye):
    X=              0.0000    Y=              0.0000    Z=             -0.0000  Tot=              0.0000
 Quadrupole moment (field-independent basis, Debye-Ang):
   XX=            -15.0946   YY=            -15.0946   ZZ=            -11.6650
   XY=              0.0000   XZ=              0.0000   YZ=              0.0000

 Normal termination of Gaussian 16 at Sun Dec  5 13:03:44 2021.
