 Gaussian 16, Revision A.03,
 Gaussian 16:  EM64L-G16RevA.03 25-Dec-2016

 ------------------------------------------------
 #p rhf nosymm output=matrix int=noraf scf=conven
 ------------------------------------------------

 --------
 h2-sto3g
 --------
 Symbolic Z-matrix:
 Charge =  0 Multiplicity = 1

                          Input orientation:
 ---------------------------------------------------------------------
 Center     Atomic      Atomic             Coordinates (Angstroms)
 Number     Number       Type             X           Y           Z
 ---------------------------------------------------------------------
      1          1           0        0.000000    0.000000    0.000000
      2          1           0        0.000000    0.000000    1.200000
      3          1           0        0.000000    0.000000    2.400000
      4          1           0        0.000000    0.000000    3.600000
      5          1           0        0.000000    0.000000    4.800000
      6          1           0        0.000000    0.000000    6.000000
      7          1           0        0.000000    0.000000    7.200000
      8          1           0        0.000000    0.000000    8.400000
      9          1           0        0.000000    0.000000    9.600000
     10          1           0        0.000000    0.000000   10.800000
     11          1           0        0.000000    0.000000   12.000000
     12          1           0        0.000000    0.000000   13.200000
     13          1           0        0.000000    0.000000   14.400000
     14          1           0        0.000000    0.000000   15.600000
     15          1           0        0.000000    0.000000   16.800000
     16          1           0        0.000000    0.000000   18.000000
     17          1           0        0.000000    0.000000   19.200000
     18          1           0        0.000000    0.000000   20.400000
     19          1           0        0.000000    0.000000   21.600000
     20          1           0        0.000000    0.000000   22.800000
     21          1           0        0.000000    0.000000   24.000000
     22          1           0        0.000000    0.000000   25.200000
     23          1           0        0.000000    0.000000   26.400000
     24          1           0        0.000000    0.000000   27.600000
     25          1           0        0.000000    0.000000   28.800000
     26          1           0        0.000000    0.000000   30.000000
     27          1           0        0.000000    0.000000   31.200000
     28          1           0        0.000000    0.000000   32.400000
     29          1           0        0.000000    0.000000   33.600000
     30          1           0        0.000000    0.000000   34.800000
     31          1           0        0.000000    0.000000   36.000000
     32          1           0        0.000000    0.000000   37.200000
 ---------------------------------------------------------------------

 SCF Done:  E(RHF) =  -16.0765762586     A.U. after   13 cycles

 Alpha  occ. eigenvalues --   -0.59858  -0.59408  -0.58663  -0.57620  -0.56273
 Alpha  occ. eigenvalues --   -0.54614  -0.52634  -0.50318  -0.47654  -0.44623
 Alpha  occ. eigenvalues --   -0.41207  -0.37390  -0.33165  -0.28555  -0.23703
 Alpha  occ. eigenvalues --   -0.19181
 Alpha virt. eigenvalues --    0.01860   0.07033   0.13094   0.19459   0.25957
 Alpha virt. eigenvalues --    0.32513   0.39072   0.45566   0.51913   0.58006
 Alpha virt. eigenvalues --    0.63720   0.68914   0.73437   0.77144   0.79901

 Mulliken charges:
               1
     1  H   -0.004783
     2  H    0.003248
     3  H   -0.000531
     4  H    0.001115
     5  H   -0.000006
     6  H    0.000356
     7  H    0.000048
     8  H    0.000164
     9  H    0.000043
    10  H    0.000096
    11  H    0.000034
    12  H    0.000066
    13  H    0.000031
    14  H    0.000049
    15  H    0.000032
    16  H    0.000038
    17  H    0.000038
    18  H    0.000032
    19  H    0.000049
    20  H    0.000031
    21  H    0.000066
    22  H    0.000034
    23  H    0.000096
    24  H    0.000043
    25  H    0.000164
    26  H    0.000048
    27  H    0.000356
    28  H   -0.000006
    29  H    0.001115
    30  H   -0.000531
    31  H    0.003248
    32  H   -0.004783
 Sum of Mulliken charges =  -0.00000

 Dipole moment (field-independent basis, Debye):
    X=              0.0000    Y=              0.0000    Z=             -0.0000  Tot=              0.0000
 Quadrupole moment (field-independent basis, Debye-Ang):
   XX=            -30.1948   YY=            -30.1948   ZZ=            -24.7040
   XY=              0.0000   XZ=              0.0000   YZ=              0.0000

 Normal termination of Gaussian 16 at Sun Dec  5 13:09:03 2021.
