 Gaussian 16, Revision A.03,
 Gaussian 16:  EM64L-G16RevA.03 25-Dec-2016

 ------------------------------------------------
 #p rhf nosymm output=matrix int=noraf scf=conven
 ------------------------------------------------

 --------
 h2-sto3g
 --------
 Symbolic Z-matrix:
 Charge =  0 Multiplicity = 1

                          Input orientation:
 ---------------------------------------------------------------------
 Center     Atomic      Atomic             Coordinates (Angstroms)
 Number     Number       Type             X           Y           Z
 ---------------------------------------------------------------------
      1          1           0        0.000000    0.000000    0.000000
      2          1           0        0.000000    0.000000    1.200000
      3          1           0        0.000000    0.000000    2.400000
      4          1           0        0.000000    0.000000    3.600000
      5          1           0        0.000000    0.000000    4.800000
      6          1           0        0.000000    0.000000    6.000000
      7          1           0        0.000000    0.000000    7.200000
      8          1           0        0.000000    0.000000    8.400000
      9          1           0        0.000000    0.000000    9.600000
     10          1           0        0.000000    0.000000   10.800000
     11          1           0        0.000000    0.000000   12.000000
     12          1           0        0.000000    0.000000   13.200000
     13          1           0        0.000000    0.000000   14.400000
     14          1           0        0.000000    0.000000   15.600000
     15          1           0        0.000000    0.000000   16.800000
     16          1           0        0.000000    0.000000   18.000000
     17          1           0        0.000000    0.000000   19.200000
     18          1           0        0.000000    0.000000   20.400000
     19          1           0        0.000000    0.000000   21.600000
     20          1           0        0.000000    0.000000   22.800000
     21          1           0        0.000000    0.000000   24.000000
     22          1           0        0.000000    0.000000   25.200000
     23          1           0        0.000000    0.000000   26.400000
     24          1           0        0.000000    0.000000   27.600000
     25          1           0        0.000000    0.000000   28.800000
     26          1           0        0.000000    0.000000   30.000000
     27          1           0        0.000000    0.000000   31.200000
     28          1           0        0.000000    0.000000   32.400000
     29          1           0        0.000000    0.000000   33.600000
     30          1           0        0.000000    0.000000   34.800000
     31          1           0        0.000000    0.000000   36.000000
     32          1           0        0.000000    0.000000   37.200000
     33          1           0        0.000000    0.000000   38.400000
     34          1           0        0.000000    0.000000   39.600000
     35          1           0        0.000000    0.000000   40.800000
     36          1           0        0.000000    0.000000   42.000000
     37          1           0        0.000000    0.000000   43.200000
     38          1           0        0.000000    0.000000   44.400000
     39          1           0        0.000000    0.000000   45.600000
     40          1           0        0.000000    0.000000   46.800000
     41          1           0        0.000000    0.000000   48.000000
     42          1           0        0.000000    0.000000   49.200000
     43          1           0        0.000000    0.000000   50.400000
     44          1           0        0.000000    0.000000   51.600000
     45          1           0        0.000000    0.000000   52.800000
     46          1           0        0.000000    0.000000   54.000000
     47          1           0        0.000000    0.000000   55.200000
     48          1           0        0.000000    0.000000   56.400000
     49          1           0        0.000000    0.000000   57.600000
     50          1           0        0.000000    0.000000   58.800000
     51          1           0        0.000000    0.000000   60.000000
     52          1           0        0.000000    0.000000   61.200000
     53          1           0        0.000000    0.000000   62.400000
     54          1           0        0.000000    0.000000   63.600000
     55          1           0        0.000000    0.000000   64.800000
     56          1           0        0.000000    0.000000   66.000000
     57          1           0        0.000000    0.000000   67.200000
     58          1           0        0.000000    0.000000   68.400000
     59          1           0        0.000000    0.000000   69.600000
     60          1           0        0.000000    0.000000   70.800000
     61          1           0        0.000000    0.000000   72.000000
     62          1           0        0.000000    0.000000   73.200000
     63          1           0        0.000000    0.000000   74.400000
     64          1           0        0.000000    0.000000   75.600000
 ---------------------------------------------------------------------

 SCF Done:  E(RHF) =  -32.1660955770     A.U. after   16 cycles

 Alpha  occ. eigenvalues --   -0.59970  -0.59855  -0.59665  -0.59399  -0.59057
 Alpha  occ. eigenvalues --   -0.58638  -0.58143  -0.57570  -0.56918  -0.56185
 Alpha  occ. eigenvalues --   -0.55372  -0.54475  -0.53495  -0.52427  -0.51272
 Alpha  occ. eigenvalues --   -0.50026  -0.48687  -0.47252  -0.45719  -0.44085
 Alpha  occ. eigenvalues --   -0.42346  -0.40499  -0.38541  -0.36471  -0.34285
 Alpha  occ. eigenvalues --   -0.31985  -0.29576  -0.27070  -0.24502  -0.21942
 Alpha  occ. eigenvalues --   -0.19558  -0.17702
 Alpha virt. eigenvalues --    0.00268   0.02304   0.05012   0.08042   0.11231
 Alpha virt. eigenvalues --    0.14501   0.17817   0.21160   0.24520   0.27890
 Alpha virt. eigenvalues --    0.31263   0.34634   0.37994   0.41337   0.44652

 Mulliken charges:
               1
     1  H   -0.004796
     2  H    0.003251
     3  H   -0.000546
     4  H    0.001120
     5  H   -0.000024
     6  H    0.000363
     7  H    0.000026
     8  H    0.000173
     9  H    0.000017
    10  H    0.000107
    11  H    0.000004
    12  H    0.000077
    13  H   -0.000005
    14  H    0.000061
    15  H   -0.000010
    16  H    0.000050
    17  H   -0.000012
    18  H    0.000042
    19  H   -0.000012
    20  H    0.000035
    21  H   -0.000010
    22  H    0.000029
    23  H   -0.000008
    24  H    0.000023
    25  H   -0.000006
    26  H    0.000019
    27  H   -0.000003
    28  H    0.000014
    29  H    0.000000
    30  H    0.000010
    31  H    0.000003
    32  H    0.000007
    33  H    0.000007
    34  H    0.000003
    35  H    0.000010
    36  H    0.000000
    37  H    0.000014
    38  H   -0.000003
    39  H    0.000019
    40  H   -0.000006
    41  H    0.000023
    42  H   -0.000008
    43  H    0.000029
    44  H   -0.000010
    45  H    0.000035
    46  H   -0.000012
    47  H    0.000042
    48  H   -0.000012
    49  H    0.000050
    50  H   -0.000010
    51  H    0.000061
    52  H   -0.000005
    53  H    0.000077
    54  H    0.000004
    55  H    0.000107
    56  H    0.000017
    57  H    0.000173
    58  H    0.000026
    59  H    0.000363
    60  H   -0.000024
    61  H    0.001120
    62  H   -0.000546
    63  H    0.003251
    64  H   -0.004796
 Sum of Mulliken charges =  -0.00000

 Dipole moment (field-independent basis, Debye):
    X=              0.0000    Y=              0.0000    Z=             -0.0000  Tot=              0.0000
 Quadrupole moment (field-independent basis, Debye-Ang):
   XX=            -60.3968   YY=            -60.3968   ZZ=            -51.6115
   XY=              0.0000   XZ=              0.0000   YZ=              0.0000

 Normal termination of Gaussian 16 at Sun Dec  5 13:19:37 2021.
