 Gaussian 16, Revision A.03,
 Gaussian 16:  EM64L-G16RevA.03 25-Dec-2016

 ------------------------------------------------
 #p rhf nosymm output=matrix int=noraf scf=conven
 ------------------------------------------------

 --------
 h2-sto3g
 --------
 Symbolic Z-matrix:
 Charge =  0 Multiplicity = 1

                          Input orientation:
 ---------------------------------------------------------------------
 Center     Atomic      Atomic             Coordinates (Angstroms)
 Number     Number       Type             X           Y           Z
 ---------------------------------------------------------------------
      1          1           0        0.000000    0.000000    0.000000
      2          1           0        0.000000    0.000000    1.200000
      3          1           0        0.000000    0.000000    2.400000
      4          1           0        0.000000    0.000000    3.600000
      5          1           0        0.000000    0.000000    4.800000
      6          1           0        0.000000    0.000000    6.000000
      7          1           0        0.000000    0.000000    7.200000
      8          1           0        0.000000    0.000000    8.400000
 ---------------------------------------------------------------------

 SCF Done:  E(RHF) =  -4.01106574259     A.U. after    9 cycles

 Alpha  occ. eigenvalues --   -0.57918  -0.51799  -0.41622  -0.27592
 Alpha virt. eigenvalues --    0.11590   0.33139   0.55874   0.74613

 Mulliken charges:
               1
     1  H   -0.004433
     2  H    0.003287
     3  H   -0.000038
     4  H    0.001183
     5  H    0.001183
     6  H   -0.000038
     7  H    0.003287
     8  H   -0.004433
 Sum of Mulliken charges =  -0.00000

 Dipole moment (field-independent basis, Debye):
    X=              0.0000    Y=              0.0000    Z=             -0.0000  Tot=              0.0000
 Quadrupole moment (field-independent basis, Debye-Ang):
   XX=             -7.5469   YY=             -7.5469   ZZ=             -5.4421
   XY=              0.0000   XZ=              0.0000   YZ=              0.0000

 Normal termination of Gaussian 16 at Sun Dec  5 12:29:34 2021.
