 Gaussian 16, Revision A.03,
 Gaussian 16:  EM64L-G16RevA.03 25-Dec-2016

 ---------------------------------------------
 #P output=matrix nosymm scf=conven int=noraff
 ---------------------------------------------

 --------
 he-sto3g
 --------
 Symbolic Z-matrix:
 Charge =  0 Multiplicity = 2

                          Input orientation:
 ---------------------------------------------------------------------
 Center     Atomic      Atomic             Coordinates (Angstroms)
 Number     Number       Type             X           Y           Z
 ---------------------------------------------------------------------
      1          2           0        0.000000    0.000000    0.000000
      2          1           0        0.000000    0.000000    1.460000
 ---------------------------------------------------------------------

 SCF Done:  E(UHF) =  -3.25108784991     A.U. after    5 cycles

 Alpha  occ. eigenvalues --   -0.90779  -0.42896
  Beta  occ. eigenvalues --   -0.88066
  Beta virt. eigenvalues --    0.34267

 Mulliken charges and spin densities:
               1          2
     1  He   0.010559   0.010559
     2  H   -0.010559   0.989441
 Sum of Mulliken charges =  -0.00000   1.00000

 Dipole moment (field-independent basis, Debye):
    X=              0.0000    Y=              0.0000    Z=             -0.1209  Tot=              0.1209
 Quadrupole moment (field-independent basis, Debye-Ang):
   XX=             -1.8052   YY=             -1.8052   ZZ=             -2.0900
   XY=              0.0000   XZ=              0.0000   YZ=              0.0000

 Normal termination of Gaussian 16 at Fri Dec  3 11:11:23 2021.
