 Gaussian 16, Revision A.03,
 Gaussian 16:  EM64L-G16RevA.03 25-Dec-2016

 ------------------------------------------------
 #P rhf nosymm output=matrix int=noraf scf=conven
 ------------------------------------------------

 --
 c2
 --
 Symbolic Z-matrix:
 Charge =  0 Multiplicity = 1

                          Input orientation:
 ---------------------------------------------------------------------
 Center     Atomic      Atomic             Coordinates (Angstroms)
 Number     Number       Type             X           Y           Z
 ---------------------------------------------------------------------
      1          6           0        0.000000    0.000000    0.000000
      2          6           0        0.000000    0.000000    1.000000
 ---------------------------------------------------------------------

 SCF Done:  E(RHF) =  -74.2483215559     A.U. after    7 cycles

 Alpha  occ. eigenvalues --  -11.12340 -11.10976  -1.08276  -0.48602  -0.48602
 Alpha  occ. eigenvalues --   -0.40109
 Alpha virt. eigenvalues --    0.00828   0.45602   0.45602   1.69226

 Mulliken charges:
               1
     1  C   -0.000000
     2  C    0.000000
 Sum of Mulliken charges =   0.00000

 Dipole moment (field-independent basis, Debye):
    X=             -0.0000    Y=              0.0000    Z=              0.0000  Tot=              0.0000
 Quadrupole moment (field-independent basis, Debye-Ang):
   XX=            -10.2276   YY=            -10.2276   ZZ=             -8.0713
   XY=             -0.0000   XZ=             -0.0000   YZ=              0.0000

 Normal termination of Gaussian 16 at Sun Dec  5 18:54:57 2021.
