 Gaussian 16, Revision A.03,
 Gaussian 16:  EM64L-G16RevA.03 25-Dec-2016

 ------------------------------------------------
 #P rhf nosymm output=matrix int=noraf scf=conven
 ------------------------------------------------

 --
 c4
 --
 Symbolic Z-matrix:
 Charge =  0 Multiplicity = 1

                          Input orientation:
 ---------------------------------------------------------------------
 Center     Atomic      Atomic             Coordinates (Angstroms)
 Number     Number       Type             X           Y           Z
 ---------------------------------------------------------------------
      1          6           0        0.000000    0.000000    0.000000
      2          6           0        0.000000    0.000000    1.000000
      3          1           0        0.936060    0.000000   -0.351842
      4          1           0       -0.468030    0.810651   -0.351842
 ---------------------------------------------------------------------

 SCF Done:  E(RHF) =  -75.4787530834     A.U. after   10 cycles

 Alpha  occ. eigenvalues --  -11.04747 -11.01600  -1.14281  -0.69519  -0.66166
 Alpha  occ. eigenvalues --   -0.46165  -0.35626
 Alpha virt. eigenvalues --    0.24612   0.41870   0.82846   0.86430   1.70707

 Mulliken charges:
               1
     1  C   -0.497082
     2  C    0.075251
     3  H    0.210915
     4  H    0.210915
 Sum of Mulliken charges =   0.00000

 Dipole moment (field-independent basis, Debye):
    X=              0.5661    Y=              0.9806    Z=             -1.8664  Tot=              2.1830
 Quadrupole moment (field-independent basis, Debye-Ang):
   XX=             -9.6611   YY=            -10.5510   ZZ=            -14.9361
   XY=             -0.7707   XZ=             -0.2358   YZ=             -0.4084

 Normal termination of Gaussian 16 at Sun Dec  5 19:02:08 2021.
