 Gaussian 16, Revision A.03,
 Gaussian 16:  EM64L-G16RevA.03 25-Dec-2016

 ------------------------------------------------
 #P rhf nosymm output=matrix int=noraf scf=conven
 ------------------------------------------------

 --
 c8
 --
 Symbolic Z-matrix:
 Charge =  0 Multiplicity = 1

                          Input orientation:
 ---------------------------------------------------------------------
 Center     Atomic      Atomic             Coordinates (Angstroms)
 Number     Number       Type             X           Y           Z
 ---------------------------------------------------------------------
      1          6           0        0.000000    0.000000    0.000000
      2          6           0        0.000000    0.000000    1.000000
      3          1           0        0.936060    0.000000   -0.351842
      4          1           0       -0.468030    0.810651   -0.351842
      5          1           0       -0.468030   -0.810651   -0.351842
      6          1           0        0.468030    0.810651    1.351842
      7          1           0        0.468030   -0.810651    1.351842
      8          1           0       -0.936060    0.000000    1.351842
 ---------------------------------------------------------------------

 SCF Done:  E(RHF) =  -77.7141648039     A.U. after    8 cycles

 Alpha  occ. eigenvalues --  -11.07545 -11.06123  -1.20671  -0.80024  -0.73977
 Alpha  occ. eigenvalues --   -0.73977  -0.59373  -0.40881  -0.40881
 Alpha virt. eigenvalues --    0.64403   0.64403   0.82879   0.91587   0.98078
 Alpha virt. eigenvalues --    0.98078   1.71929

 Mulliken charges:
               1
     1  C   -0.323501
     2  C   -0.323501
     3  H    0.107834
     4  H    0.107834
     5  H    0.107834
     6  H    0.107834
     7  H    0.107834
     8  H    0.107834
 Sum of Mulliken charges =   0.00000

 Dipole moment (field-independent basis, Debye):
    X=              0.0000    Y=             -0.0000    Z=              0.0000  Tot=              0.0000
 Quadrupole moment (field-independent basis, Debye-Ang):
   XX=            -13.3751   YY=            -13.3751   ZZ=            -15.5396
   XY=             -0.0000   XZ=             -0.0000   YZ=             -0.0000

 Normal termination of Gaussian 16 at Sun Dec  5 19:14:34 2021.
