 Gaussian 16, Revision A.03,
 Gaussian 16:  EM64L-G16RevA.03 25-Dec-2016

 ---------------------------------------------
 #P nosymm int=noraff scf=conven output=matrix
 ---------------------------------------------

 ----
 test
 ----
 Symbolic Z-matrix:
 Charge =  0 Multiplicity = 1

                          Input orientation:
 ---------------------------------------------------------------------
 Center     Atomic      Atomic             Coordinates (Angstroms)
 Number     Number       Type             X           Y           Z
 ---------------------------------------------------------------------
      1          6           0        0.000000    0.000000    0.000000
      2          8           0        0.000000    0.000000    1.400000
 ---------------------------------------------------------------------

 SCF Done:  E(RHF) =  -111.114149443     A.U. after    9 cycles

 Alpha  occ. eigenvalues --  -20.29869 -11.09505  -1.26126  -0.67346  -0.41164
 Alpha  occ. eigenvalues --   -0.40325  -0.40325
 Alpha virt. eigenvalues --    0.22103   0.22103   0.65098

 Mulliken charges:
               1
     1  C    0.208413
     2  O   -0.208413
 Sum of Mulliken charges =  -0.00000

 Dipole moment (field-independent basis, Debye):
    X=              0.0000    Y=             -0.0000    Z=             -0.6350  Tot=              0.6350
 Quadrupole moment (field-independent basis, Debye-Ang):
   XX=             -8.7387   YY=             -8.7387   ZZ=            -12.4458
   XY=              0.0000   XZ=             -0.0000   YZ=             -0.0000

 Normal termination of Gaussian 16 at Mon Dec  6 18:50:28 2021.
